ITEM: TIMESTEP
0
ITEM: NUMBER OF ATOMS
3
ITEM: BOX BOUNDS ss ss ss
-3.6238000999999997e+01 3.4779347999999999e+01
-3.6009999999999998e+01 3.5910001999999999e+01
-2.0010013230129999e+02 7.5042313030130003e+02
ITEM: ATOMS vz 
0.000296516 
-0.00155126 
0.000841861 
ITEM: TIMESTEP
200
ITEM: NUMBER OF ATOMS
3
ITEM: BOX BOUNDS ss ss ss
-3.6238000999999997e+01 3.4779347999999999e+01
-3.6009999999999998e+01 3.5910001999999999e+01
-2.0010013230129999e+02 7.5042313030130003e+02
ITEM: ATOMS vz 
-0.00051438 
-0.0247965 
-0.0052378 
ITEM: TIMESTEP
400
ITEM: NUMBER OF ATOMS
3
ITEM: BOX BOUNDS ss ss ss
-3.6238000999999997e+01 3.4779347999999999e+01
-3.6009999999999998e+01 3.5910001999999999e+01
-2.0010013230129999e+02 7.5042313030130003e+02
ITEM: ATOMS vz 
0.000393731 
0.0134258 
-0.0090065 
ITEM: TIMESTEP
600
ITEM: NUMBER OF ATOMS
3
ITEM: BOX BOUNDS ss ss ss
-3.6238000999999997e+01 3.4779347999999999e+01
-3.6009999999999998e+01 3.5910001999999999e+01
-2.0010013230129999e+02 7.5042313030130003e+02
ITEM: ATOMS vz 
-0.00299066 
-0.00834989 
-0.0094642 
ITEM: TIMESTEP
800
ITEM: NUMBER OF ATOMS
3
ITEM: BOX BOUNDS ss ss ss
-3.6238000999999997e+01 3.4779347999999999e+01
-3.6009999999999998e+01 3.5910001999999999e+01
-2.0010013230129999e+02 7.5042313030130003e+02
ITEM: ATOMS vz 
0.0046766 
-0.00937462 
0.00124415 
ITEM: TIMESTEP
1000
ITEM: NUMBER OF ATOMS
3
ITEM: BOX BOUNDS ss ss ss
-3.6238000999999997e+01 3.4779347999999999e+01
-3.6009999999999998e+01 3.5910001999999999e+01
-2.0010013230129999e+02 7.5042313030130003e+02
ITEM: ATOMS vz 
-0.00397428 
0.0286277 
-0.00587244 
ITEM: TIMESTEP
1200
ITEM: NUMBER OF ATOMS
3
ITEM: BOX BOUNDS ss ss ss
-3.6238000999999997e+01 3.4779347999999999e+01
-3.6009999999999998e+01 3.5910001999999999e+01
-2.0010013230129999e+02 7.5042313030130003e+02
ITEM: ATOMS vz 
-0.00144401 
0.0217801 
0.00833597 
ITEM: TIMESTEP
1400
ITEM: NUMBER OF ATOMS
3
ITEM: BOX BOUNDS ss ss ss
-3.6238000999999997e+01 3.4779347999999999e+01
-3.6009999999999998e+01 3.5910001999999999e+01
-2.0010013230129999e+02 7.5042313030130003e+02
ITEM: ATOMS vz 
0.0036765 
-0.0125025 
0.00437917 
ITEM: TIMESTEP
1600
ITEM: NUMBER OF ATOMS
3
ITEM: BOX BOUNDS ss ss ss
-3.6238000999999997e+01 3.4779347999999999e+01
-3.6009999999999998e+01 3.5910001999999999e+01
-2.0010013230129999e+02 7.5042313030130003e+02
ITEM: ATOMS vz 
0.00159833 
0.0110399 
0.000831262 
ITEM: TIMESTEP
1800
ITEM: NUMBER OF ATOMS
3
ITEM: BOX BOUNDS ss ss ss
-3.6238000999999997e+01 3.4779347999999999e+01
-3.6009999999999998e+01 3.5910001999999999e+01
-2.0010013230129999e+02 7.5042313030130003e+02
ITEM: ATOMS vz 
0.000404943 
0.00565189 
-0.0241812 
ITEM: TIMESTEP
2000
ITEM: NUMBER OF ATOMS
3
ITEM: BOX BOUNDS ss ss ss
-3.6238000999999997e+01 3.4779347999999999e+01
-3.6009999999999998e+01 3.5910001999999999e+01
-2.0010013230129999e+02 7.5042313030130003e+02
ITEM: ATOMS vz 
-0.00873781 
0.0093648 
-0.0112559 
ITEM: TIMESTEP
2200
ITEM: NUMBER OF ATOMS
3
ITEM: BOX BOUNDS ss ss ss
-3.6238000999999997e+01 3.4779347999999999e+01
-3.6009999999999998e+01 3.5910001999999999e+01
-2.0010013230129999e+02 7.5042313030130003e+02
ITEM: ATOMS vz 
0.00622117 
0.00335229 
0.0262885 
ITEM: TIMESTEP
2400
ITEM: NUMBER OF ATOMS
3
ITEM: BOX BOUNDS ss ss ss
-3.6238000999999997e+01 3.4779347999999999e+01
-3.6009999999999998e+01 3.5910001999999999e+01
-2.0010013230129999e+02 7.5042313030130003e+02
ITEM: ATOMS vz 
-0.0157185 
-0.00777824 
-0.00123786 
ITEM: TIMESTEP
2600
ITEM: NUMBER OF ATOMS
3
ITEM: BOX BOUNDS ss ss ss
-3.6238000999999997e+01 3.4779347999999999e+01
-3.6009999999999998e+01 3.5910001999999999e+01
-2.0010013230129999e+02 7.5042313030130003e+02
ITEM: ATOMS vz 
-0.00110005 
0.00385484 
-0.0391942 
ITEM: TIMESTEP
2800
ITEM: NUMBER OF ATOMS
3
ITEM: BOX BOUNDS ss ss ss
-3.6238000999999997e+01 3.4779347999999999e+01
-3.6009999999999998e+01 3.5910001999999999e+01
-2.0010013230129999e+02 7.5042313030130003e+02
ITEM: ATOMS vz 
0.018085 
0.00648725 
0.00561531 
ITEM: TIMESTEP
3000
ITEM: NUMBER OF ATOMS
3
ITEM: BOX BOUNDS ss ss ss
-3.6238000999999997e+01 3.4779347999999999e+01
-3.6009999999999998e+01 3.5910001999999999e+01
-2.0010013230129999e+02 7.5042313030130003e+02
ITEM: ATOMS vz 
0.0180206 
0.00283642 
0.0110341 
ITEM: TIMESTEP
3200
ITEM: NUMBER OF ATOMS
3
ITEM: BOX BOUNDS ss ss ss
-3.6238000999999997e+01 3.4779347999999999e+01
-3.6009999999999998e+01 3.5910001999999999e+01
-2.0010013230129999e+02 7.5042313030130003e+02
ITEM: ATOMS vz 
-0.0187739 
-0.00137442 
-0.00645985 
ITEM: TIMESTEP
3400
ITEM: NUMBER OF ATOMS
3
ITEM: BOX BOUNDS ss ss ss
-3.6238000999999997e+01 3.4779347999999999e+01
-3.6009999999999998e+01 3.5910001999999999e+01
-2.0010013230129999e+02 7.5042313030130003e+02
ITEM: ATOMS vz 
-0.0120774 
-0.00281824 
0.0076908 
ITEM: TIMESTEP
3600
ITEM: NUMBER OF ATOMS
3
ITEM: BOX BOUNDS ss ss ss
-3.6238000999999997e+01 3.4779347999999999e+01
-3.6009999999999998e+01 3.5910001999999999e+01
-2.0010013230129999e+02 7.5042313030130003e+02
ITEM: ATOMS vz 
-0.000263826 
0.0013511 
-0.0327498 
ITEM: TIMESTEP
3800
ITEM: NUMBER OF ATOMS
3
ITEM: BOX BOUNDS ss ss ss
-3.6238000999999997e+01 3.4779347999999999e+01
-3.6009999999999998e+01 3.5910001999999999e+01
-2.0010013230129999e+02 7.5042313030130003e+02
ITEM: ATOMS vz 
0.0284178 
0.0093262 
-0.00658251 
ITEM: TIMESTEP
4000
ITEM: NUMBER OF ATOMS
3
ITEM: BOX BOUNDS ss ss ss
-3.6238000999999997e+01 3.4779347999999999e+01
-3.6009999999999998e+01 3.5910001999999999e+01
-2.0010013230129999e+02 7.5042313030130003e+02
ITEM: ATOMS vz 
-0.0159009 
-0.00125655 
-0.0131765 
ITEM: TIMESTEP
4200
ITEM: NUMBER OF ATOMS
3
ITEM: BOX BOUNDS ss ss ss
-3.6238000999999997e+01 3.4779347999999999e+01
-3.6009999999999998e+01 3.5910001999999999e+01
-2.0010013230129999e+02 7.5042313030130003e+02
ITEM: ATOMS vz 
0.0399016 
-0.00123739 
-0.0246385 
ITEM: TIMESTEP
4400
ITEM: NUMBER OF ATOMS
3
ITEM: BOX BOUNDS ss ss ss
-3.6238000999999997e+01 3.4779347999999999e+01
-3.6009999999999998e+01 3.5910001999999999e+01
-2.0010013230129999e+02 7.5042313030130003e+02
ITEM: ATOMS vz 
0.010624 
-0.00236876 
-0.00861215 
ITEM: TIMESTEP
4600
ITEM: NUMBER OF ATOMS
3
ITEM: BOX BOUNDS ss ss ss
-3.6238000999999997e+01 3.4779347999999999e+01
-3.6009999999999998e+01 3.5910001999999999e+01
-2.0010013230129999e+02 7.5042313030130003e+02
ITEM: ATOMS vz 
-0.0137957 
-0.00569375 
-0.00838485 
ITEM: TIMESTEP
4800
ITEM: NUMBER OF ATOMS
3
ITEM: BOX BOUNDS ss ss ss
-3.6238000999999997e+01 3.4779347999999999e+01
-3.6009999999999998e+01 3.5910001999999999e+01
-2.0010013230129999e+02 7.5042313030130003e+02
ITEM: ATOMS vz 
-0.00523899 
-0.00196012 
-0.00808575 
ITEM: TIMESTEP
5000
ITEM: NUMBER OF ATOMS
3
ITEM: BOX BOUNDS ss ss ss
-3.6238000999999997e+01 3.4779347999999999e+01
-3.6009999999999998e+01 3.5910001999999999e+01
-2.0010013230129999e+02 7.5042313030130003e+02
ITEM: ATOMS vz 
-0.0162161 
0.00281354 
0.00392669 
ITEM: TIMESTEP
5200
ITEM: NUMBER OF ATOMS
3
ITEM: BOX BOUNDS ss ss ss
-3.6238000999999997e+01 3.4779347999999999e+01
-3.6009999999999998e+01 3.5910001999999999e+01
-2.0010013230129999e+02 7.5042313030130003e+02
ITEM: ATOMS vz 
0.00930183 
-0.000621549 
0.00353283 
ITEM: TIMESTEP
5400
ITEM: NUMBER OF ATOMS
3
ITEM: BOX BOUNDS ss ss ss
-3.6238000999999997e+01 3.4779347999999999e+01
-3.6009999999999998e+01 3.5910001999999999e+01
-2.0010013230129999e+02 7.5042313030130003e+02
ITEM: ATOMS vz 
0.0230682 
0.00291271 
-0.0187828 
ITEM: TIMESTEP
5600
ITEM: NUMBER OF ATOMS
3
ITEM: BOX BOUNDS ss ss ss
-3.6238000999999997e+01 3.4779347999999999e+01
-3.6009999999999998e+01 3.5910001999999999e+01
-2.0010013230129999e+02 7.5042313030130003e+02
ITEM: ATOMS vz 
0.0218591 
-0.00125429 
-0.0203922 
ITEM: TIMESTEP
5800
ITEM: NUMBER OF ATOMS
3
ITEM: BOX BOUNDS ss ss ss
-3.6238000999999997e+01 3.4779347999999999e+01
-3.6009999999999998e+01 3.5910001999999999e+01
-2.0010013230129999e+02 7.5042313030130003e+02
ITEM: ATOMS vz 
0.0160986 
0.00659471 
-0.0173024 
ITEM: TIMESTEP
6000
ITEM: NUMBER OF ATOMS
3
ITEM: BOX BOUNDS ss ss ss
-3.6238000999999997e+01 3.4779347999999999e+01
-3.6009999999999998e+01 3.5910001999999999e+01
-2.0010013230129999e+02 7.5042313030130003e+02
ITEM: ATOMS vz 
0.013955 
0.00351814 
-0.0112918 
ITEM: TIMESTEP
6200
ITEM: NUMBER OF ATOMS
3
ITEM: BOX BOUNDS ss ss ss
-3.6238000999999997e+01 3.4779347999999999e+01
-3.6009999999999998e+01 3.5910001999999999e+01
-2.0010013230129999e+02 7.5042313030130003e+02
ITEM: ATOMS vz 
-0.00134522 
0.00033951 
-0.00538978 
ITEM: TIMESTEP
6400
ITEM: NUMBER OF ATOMS
3
ITEM: BOX BOUNDS ss ss ss
-3.6238000999999997e+01 3.4779347999999999e+01
-3.6009999999999998e+01 3.5910001999999999e+01
-2.0010013230129999e+02 7.5042313030130003e+02
ITEM: ATOMS vz 
0.0155024 
0.00202685 
-0.0117878 
ITEM: TIMESTEP
6600
ITEM: NUMBER OF ATOMS
3
ITEM: BOX BOUNDS ss ss ss
-3.6238000999999997e+01 3.4779347999999999e+01
-3.6009999999999998e+01 3.5910001999999999e+01
-2.0010013230129999e+02 7.5042313030130003e+02
ITEM: ATOMS vz 
0.00522974 
0.00320047 
-0.018522 
ITEM: TIMESTEP
6800
ITEM: NUMBER OF ATOMS
3
ITEM: BOX BOUNDS ss ss ss
-3.6238000999999997e+01 3.4779347999999999e+01
-3.6009999999999998e+01 3.5910001999999999e+01
-2.0010013230129999e+02 7.5042313030130003e+02
ITEM: ATOMS vz 
0.00356484 
0.00588647 
-0.00296688 
ITEM: TIMESTEP
7000
ITEM: NUMBER OF ATOMS
3
ITEM: BOX BOUNDS ss ss ss
-3.6238000999999997e+01 3.4779347999999999e+01
-3.6009999999999998e+01 3.5910001999999999e+01
-2.0010013230129999e+02 7.5042313030130003e+02
ITEM: ATOMS vz 
0.0254084 
0.00377729 
0.00554341 
ITEM: TIMESTEP
7200
ITEM: NUMBER OF ATOMS
3
ITEM: BOX BOUNDS ss ss ss
-3.6238000999999997e+01 3.4779347999999999e+01
-3.6009999999999998e+01 3.5910001999999999e+01
-2.0010013230129999e+02 7.5042313030130003e+02
ITEM: ATOMS vz 
-0.0173151 
-0.000929396 
0.0228161 
ITEM: TIMESTEP
7400
ITEM: NUMBER OF ATOMS
3
ITEM: BOX BOUNDS ss ss ss
-3.6238000999999997e+01 3.4779347999999999e+01
-3.6009999999999998e+01 3.5910001999999999e+01
-2.0010013230129999e+02 7.5042313030130003e+02
ITEM: ATOMS vz 
-0.0283693 
-0.0016763 
0.0077756 
ITEM: TIMESTEP
7600
ITEM: NUMBER OF ATOMS
3
ITEM: BOX BOUNDS ss ss ss
-3.6238000999999997e+01 3.4779347999999999e+01
-3.6009999999999998e+01 3.5910001999999999e+01
-2.0010013230129999e+02 7.5042313030130003e+02
ITEM: ATOMS vz 
0.00641007 
-0.00197292 
0.0197742 
ITEM: TIMESTEP
7800
ITEM: NUMBER OF ATOMS
3
ITEM: BOX BOUNDS ss ss ss
-3.6238000999999997e+01 3.4779347999999999e+01
-3.6009999999999998e+01 3.5910001999999999e+01
-2.0010013230129999e+02 7.5042313030130003e+02
ITEM: ATOMS vz 
0.0123392 
-0.00561498 
-0.00782803 
ITEM: TIMESTEP
8000
ITEM: NUMBER OF ATOMS
3
ITEM: BOX BOUNDS ss ss ss
-3.6238000999999997e+01 3.4779347999999999e+01
-3.6009999999999998e+01 3.5910001999999999e+01
-2.0010013230129999e+02 7.5042313030130003e+02
ITEM: ATOMS vz 
-0.0118396 
0.00567706 
-0.00384921 
ITEM: TIMESTEP
8200
ITEM: NUMBER OF ATOMS
3
ITEM: BOX BOUNDS ss ss ss
-3.6238000999999997e+01 3.4779347999999999e+01
-3.6009999999999998e+01 3.5910001999999999e+01
-2.0010013230129999e+02 7.5042313030130003e+02
ITEM: ATOMS vz 
0.0136178 
-0.000590302 
-0.00665627 
ITEM: TIMESTEP
8400
ITEM: NUMBER OF ATOMS
3
ITEM: BOX BOUNDS ss ss ss
-3.6238000999999997e+01 3.4779347999999999e+01
-3.6009999999999998e+01 3.5910001999999999e+01
-2.0010013230129999e+02 7.5042313030130003e+02
ITEM: ATOMS vz 
-0.00838049 
-0.0072131 
-0.000697336 
ITEM: TIMESTEP
8600
ITEM: NUMBER OF ATOMS
3
ITEM: BOX BOUNDS ss ss ss
-3.6238000999999997e+01 3.4779347999999999e+01
-3.6009999999999998e+01 3.5910001999999999e+01
-2.0010013230129999e+02 7.5042313030130003e+02
ITEM: ATOMS vz 
-0.00597284 
0.00504886 
0.019145 
ITEM: TIMESTEP
8800
ITEM: NUMBER OF ATOMS
3
ITEM: BOX BOUNDS ss ss ss
-3.6238000999999997e+01 3.4779347999999999e+01
-3.6009999999999998e+01 3.5910001999999999e+01
-2.0010013230129999e+02 7.5042313030130003e+02
ITEM: ATOMS vz 
-0.0180393 
0.00832616 
-0.0282178 
ITEM: TIMESTEP
9000
ITEM: NUMBER OF ATOMS
3
ITEM: BOX BOUNDS ss ss ss
-3.6238000999999997e+01 3.4779347999999999e+01
-3.6009999999999998e+01 3.5910001999999999e+01
-2.0010013230129999e+02 7.5042313030130003e+02
ITEM: ATOMS vz 
0.0195721 
-0.000444358 
0.0420193 
ITEM: TIMESTEP
9200
ITEM: NUMBER OF ATOMS
3
ITEM: BOX BOUNDS ss ss ss
-3.6238000999999997e+01 3.4779347999999999e+01
-3.6009999999999998e+01 3.5910001999999999e+01
-2.0010013230129999e+02 7.5042313030130003e+02
ITEM: ATOMS vz 
-0.00428098 
-0.00570411 
-0.0343351 
ITEM: TIMESTEP
9400
ITEM: NUMBER OF ATOMS
3
ITEM: BOX BOUNDS ss ss ss
-3.6238000999999997e+01 3.4779347999999999e+01
-3.6009999999999998e+01 3.5910001999999999e+01
-2.0010013230129999e+02 7.5042313030130003e+02
ITEM: ATOMS vz 
0.00171882 
0.0111701 
0.0134536 
ITEM: TIMESTEP
9600
ITEM: NUMBER OF ATOMS
3
ITEM: BOX BOUNDS ss ss ss
-3.6238000999999997e+01 3.4779347999999999e+01
-3.6009999999999998e+01 3.5910001999999999e+01
-2.0010013230129999e+02 7.5042313030130003e+02
ITEM: ATOMS vz 
0.00968084 
6.8148e-05 
-0.0177935 
ITEM: TIMESTEP
9800
ITEM: NUMBER OF ATOMS
3
ITEM: BOX BOUNDS ss ss ss
-3.6238000999999997e+01 3.4779347999999999e+01
-3.6009999999999998e+01 3.5910001999999999e+01
-2.0010013230129999e+02 7.5042313030130003e+02
ITEM: ATOMS vz 
-0.00910198 
0.024595 
-0.0346739 
ITEM: TIMESTEP
10000
ITEM: NUMBER OF ATOMS
3
ITEM: BOX BOUNDS ss ss ss
-3.6238000999999997e+01 3.4779347999999999e+01
-3.6009999999999998e+01 3.5910001999999999e+01
-2.0010013230129999e+02 7.5042313030130003e+02
ITEM: ATOMS vz 
-0.00494887 
0.0228067 
-0.00151676 
ITEM: TIMESTEP
10200
ITEM: NUMBER OF ATOMS
3
ITEM: BOX BOUNDS ss ss ss
-3.6238000999999997e+01 3.4779347999999999e+01
-3.6009999999999998e+01 3.5910001999999999e+01
-2.0010013230129999e+02 7.5042313030130003e+02
ITEM: ATOMS vz 
0.0086822 
-0.0415761 
0.0327356 
ITEM: TIMESTEP
10400
ITEM: NUMBER OF ATOMS
3
ITEM: BOX BOUNDS ss ss ss
-3.6238000999999997e+01 3.4779347999999999e+01
-3.6009999999999998e+01 3.5910001999999999e+01
-2.0010013230129999e+02 7.5042313030130003e+02
ITEM: ATOMS vz 
0.00620876 
-0.00900822 
0.00539754 
ITEM: TIMESTEP
10600
ITEM: NUMBER OF ATOMS
3
ITEM: BOX BOUNDS ss ss ss
-3.6238000999999997e+01 3.4779347999999999e+01
-3.6009999999999998e+01 3.5910001999999999e+01
-2.0010013230129999e+02 7.5042313030130003e+02
ITEM: ATOMS vz 
0.000630612 
-0.0013518 
0.0181628 
ITEM: TIMESTEP
10800
ITEM: NUMBER OF ATOMS
3
ITEM: BOX BOUNDS ss ss ss
-3.6238000999999997e+01 3.4779347999999999e+01
-3.6009999999999998e+01 3.5910001999999999e+01
-2.0010013230129999e+02 7.5042313030130003e+02
ITEM: ATOMS vz 
0.00292886 
0.0209497 
-0.0161327 
ITEM: TIMESTEP
11000
ITEM: NUMBER OF ATOMS
3
ITEM: BOX BOUNDS ss ss ss
-3.6238000999999997e+01 3.4779347999999999e+01
-3.6009999999999998e+01 3.5910001999999999e+01
-2.0010013230129999e+02 7.5042313030130003e+02
ITEM: ATOMS vz 
0.0024953 
0.00975992 
0.0188145 
ITEM: TIMESTEP
11200
ITEM: NUMBER OF ATOMS
3
ITEM: BOX BOUNDS ss ss ss
-3.6238000999999997e+01 3.4779347999999999e+01
-3.6009999999999998e+01 3.5910001999999999e+01
-2.0010013230129999e+02 7.5042313030130003e+02
ITEM: ATOMS vz 
0.00438677 
-0.0101627 
-0.00732936 
ITEM: TIMESTEP
11400
ITEM: NUMBER OF ATOMS
3
ITEM: BOX BOUNDS ss ss ss
-3.6238000999999997e+01 3.4779347999999999e+01
-3.6009999999999998e+01 3.5910001999999999e+01
-2.0010013230129999e+02 7.5042313030130003e+02
ITEM: ATOMS vz 
0.00394819 
0.00557694 
0.00454659 
ITEM: TIMESTEP
11600
ITEM: NUMBER OF ATOMS
3
ITEM: BOX BOUNDS ss ss ss
-3.6238000999999997e+01 3.4779347999999999e+01
-3.6009999999999998e+01 3.5910001999999999e+01
-2.0010013230129999e+02 7.5042313030130003e+02
ITEM: ATOMS vz 
0.00581563 
-0.00102597 
0.0150926 
ITEM: TIMESTEP
11800
ITEM: NUMBER OF ATOMS
3
ITEM: BOX BOUNDS ss ss ss
-3.6238000999999997e+01 3.4779347999999999e+01
-3.6009999999999998e+01 3.5910001999999999e+01
-2.0010013230129999e+02 7.5042313030130003e+02
ITEM: ATOMS vz 
0.00425033 
0.00763736 
-0.0132682 
ITEM: TIMESTEP
12000
ITEM: NUMBER OF ATOMS
3
ITEM: BOX BOUNDS ss ss ss
-3.6238000999999997e+01 3.4779347999999999e+01
-3.6009999999999998e+01 3.5910001999999999e+01
-2.0010013230129999e+02 7.5042313030130003e+02
ITEM: ATOMS vz 
0.00155167 
-0.0202624 
-0.00379717 
ITEM: TIMESTEP
12200
ITEM: NUMBER OF ATOMS
3
ITEM: BOX BOUNDS ss ss ss
-3.6238000999999997e+01 3.4779347999999999e+01
-3.6009999999999998e+01 3.5910001999999999e+01
-2.0010013230129999e+02 7.5042313030130003e+02
ITEM: ATOMS vz 
0.00106984 
-0.0128995 
-0.0232145 
ITEM: TIMESTEP
12400
ITEM: NUMBER OF ATOMS
3
ITEM: BOX BOUNDS ss ss ss
-3.6238000999999997e+01 3.4779347999999999e+01
-3.6009999999999998e+01 3.5910001999999999e+01
-2.0010013230129999e+02 7.5042313030130003e+02
ITEM: ATOMS vz 
0.00825611 
-0.0239557 
0.0212004 
ITEM: TIMESTEP
12600
ITEM: NUMBER OF ATOMS
3
ITEM: BOX BOUNDS ss ss ss
-3.6238000999999997e+01 3.4779347999999999e+01
-3.6009999999999998e+01 3.5910001999999999e+01
-2.0010013230129999e+02 7.5042313030130003e+02
ITEM: ATOMS vz 
-0.0027278 
0.012766 
0.0333192 
ITEM: TIMESTEP
12800
ITEM: NUMBER OF ATOMS
3
ITEM: BOX BOUNDS ss ss ss
-3.6238000999999997e+01 3.4779347999999999e+01
-3.6009999999999998e+01 3.5910001999999999e+01
-2.0010013230129999e+02 7.5042313030130003e+02
ITEM: ATOMS vz 
-0.00652318 
0.000458236 
-0.0322509 
ITEM: TIMESTEP
13000
ITEM: NUMBER OF ATOMS
3
ITEM: BOX BOUNDS ss ss ss
-3.6238000999999997e+01 3.4779347999999999e+01
-3.6009999999999998e+01 3.5910001999999999e+01
-2.0010013230129999e+02 7.5042313030130003e+02
ITEM: ATOMS vz 
0.00405577 
-0.0156839 
0.0118805 
ITEM: TIMESTEP
13200
ITEM: NUMBER OF ATOMS
3
ITEM: BOX BOUNDS ss ss ss
-3.6238000999999997e+01 3.4779347999999999e+01
-3.6009999999999998e+01 3.5910001999999999e+01
-2.0010013230129999e+02 7.5042313030130003e+02
ITEM: ATOMS vz 
0.00643533 
0.013754 
-0.00192467 
ITEM: TIMESTEP
13400
ITEM: NUMBER OF ATOMS
3
ITEM: BOX BOUNDS ss ss ss
-3.6238000999999997e+01 3.4779347999999999e+01
-3.6009999999999998e+01 3.5910001999999999e+01
-2.0010013230129999e+02 7.5042313030130003e+02
ITEM: ATOMS vz 
-0.00561201 
0.0138676 
-0.00573238 
ITEM: TIMESTEP
13600
ITEM: NUMBER OF ATOMS
3
ITEM: BOX BOUNDS ss ss ss
-3.6238000999999997e+01 3.4779347999999999e+01
-3.6009999999999998e+01 3.5910001999999999e+01
-2.0010013230129999e+02 7.5042313030130003e+02
ITEM: ATOMS vz 
-0.00101868 
0.00728035 
-0.0127169 
ITEM: TIMESTEP
13800
ITEM: NUMBER OF ATOMS
3
ITEM: BOX BOUNDS ss ss ss
-3.6238000999999997e+01 3.4779347999999999e+01
-3.6009999999999998e+01 3.5910001999999999e+01
-2.0010013230129999e+02 7.5042313030130003e+02
ITEM: ATOMS vz 
0.00320211 
0.00182639 
-0.00998722 
ITEM: TIMESTEP
14000
ITEM: NUMBER OF ATOMS
3
ITEM: BOX BOUNDS ss ss ss
-3.6238000999999997e+01 3.4779347999999999e+01
-3.6009999999999998e+01 3.5910001999999999e+01
-2.0010013230129999e+02 7.5042313030130003e+02
ITEM: ATOMS vz 
-0.00263166 
0.0187209 
0.0229597 
ITEM: TIMESTEP
14200
ITEM: NUMBER OF ATOMS
3
ITEM: BOX BOUNDS ss ss ss
-3.6238000999999997e+01 3.4779347999999999e+01
-3.6009999999999998e+01 3.5910001999999999e+01
-2.0010013230129999e+02 7.5042313030130003e+02
ITEM: ATOMS vz 
-0.00325238 
0.0282491 
-0.00260806 
ITEM: TIMESTEP
14400
ITEM: NUMBER OF ATOMS
3
ITEM: BOX BOUNDS ss ss ss
-3.6238000999999997e+01 3.4779347999999999e+01
-3.6009999999999998e+01 3.5910001999999999e+01
-2.0010013230129999e+02 7.5042313030130003e+02
ITEM: ATOMS vz 
0.00739029 
-0.00109422 
-0.0118141 
ITEM: TIMESTEP
14600
ITEM: NUMBER OF ATOMS
3
ITEM: BOX BOUNDS ss ss ss
-3.6238000999999997e+01 3.4779347999999999e+01
-3.6009999999999998e+01 3.5910001999999999e+01
-2.0010013230129999e+02 7.5042313030130003e+02
ITEM: ATOMS vz 
0.000168865 
-0.0343802 
-0.00998234 
ITEM: TIMESTEP
14800
ITEM: NUMBER OF ATOMS
3
ITEM: BOX BOUNDS ss ss ss
-3.6238000999999997e+01 3.4779347999999999e+01
-3.6009999999999998e+01 3.5910001999999999e+01
-2.0010013230129999e+02 7.5042313030130003e+02
ITEM: ATOMS vz 
0.00263919 
-0.0188293 
0.00684624 
ITEM: TIMESTEP
15000
ITEM: NUMBER OF ATOMS
3
ITEM: BOX BOUNDS ss ss ss
-3.6238000999999997e+01 3.4779347999999999e+01
-3.6009999999999998e+01 3.5910001999999999e+01
-2.0010013230129999e+02 7.5042313030130003e+02
ITEM: ATOMS vz 
0.000518227 
-0.00967878 
0.0219236 
ITEM: TIMESTEP
15200
ITEM: NUMBER OF ATOMS
3
ITEM: BOX BOUNDS ss ss ss
-3.6238000999999997e+01 3.4779347999999999e+01
-3.6009999999999998e+01 3.5910001999999999e+01
-2.0010013230129999e+02 7.5042313030130003e+02
ITEM: ATOMS vz 
-0.000949184 
0.00109105 
0.00822912 
ITEM: TIMESTEP
15400
ITEM: NUMBER OF ATOMS
3
ITEM: BOX BOUNDS ss ss ss
-3.6238000999999997e+01 3.4779347999999999e+01
-3.6009999999999998e+01 3.5910001999999999e+01
-2.0010013230129999e+02 7.5042313030130003e+02
ITEM: ATOMS vz 
0.00192392 
0.0105905 
0.015677 
ITEM: TIMESTEP
15600
ITEM: NUMBER OF ATOMS
3
ITEM: BOX BOUNDS ss ss ss
-3.6238000999999997e+01 3.4779347999999999e+01
-3.6009999999999998e+01 3.5910001999999999e+01
-2.0010013230129999e+02 7.5042313030130003e+02
ITEM: ATOMS vz 
-0.00045507 
0.00524187 
-0.00277126 
ITEM: TIMESTEP
15800
ITEM: NUMBER OF ATOMS
3
ITEM: BOX BOUNDS ss ss ss
-3.6238000999999997e+01 3.4779347999999999e+01
-3.6009999999999998e+01 3.5910001999999999e+01
-2.0010013230129999e+02 7.5042313030130003e+02
ITEM: ATOMS vz 
-0.0012587 
-0.0187379 
0.0118987 
ITEM: TIMESTEP
16000
ITEM: NUMBER OF ATOMS
3
ITEM: BOX BOUNDS ss ss ss
-3.6238000999999997e+01 3.4779347999999999e+01
-3.6009999999999998e+01 3.5910001999999999e+01
-2.0010013230129999e+02 7.5042313030130003e+02
ITEM: ATOMS vz 
0.000254923 
0.0110011 
0.00351253 
ITEM: TIMESTEP
16200
ITEM: NUMBER OF ATOMS
3
ITEM: BOX BOUNDS ss ss ss
-3.6238000999999997e+01 3.4779347999999999e+01
-3.6009999999999998e+01 3.5910001999999999e+01
-2.0010013230129999e+02 7.5042313030130003e+02
ITEM: ATOMS vz 
0.00271305 
-0.0110648 
-0.0342645 
ITEM: TIMESTEP
16400
ITEM: NUMBER OF ATOMS
3
ITEM: BOX BOUNDS ss ss ss
-3.6238000999999997e+01 3.4779347999999999e+01
-3.6009999999999998e+01 3.5910001999999999e+01
-2.0010013230129999e+02 7.5042313030130003e+02
ITEM: ATOMS vz 
-0.00753682 
-0.00966876 
0.0363901 
ITEM: TIMESTEP
16600
ITEM: NUMBER OF ATOMS
3
ITEM: BOX BOUNDS ss ss ss
-3.6238000999999997e+01 3.4779347999999999e+01
-3.6009999999999998e+01 3.5910001999999999e+01
-2.0010013230129999e+02 7.5042313030130003e+02
ITEM: ATOMS vz 
-0.00203031 
-0.004066 
0.00341413 
ITEM: TIMESTEP
16800
ITEM: NUMBER OF ATOMS
3
ITEM: BOX BOUNDS ss ss ss
-3.6238000999999997e+01 3.4779347999999999e+01
-3.6009999999999998e+01 3.5910001999999999e+01
-2.0010013230129999e+02 7.5042313030130003e+02
ITEM: ATOMS vz 
0.00350904 
0.0147842 
-0.00726035 
ITEM: TIMESTEP
17000
ITEM: NUMBER OF ATOMS
3
ITEM: BOX BOUNDS ss ss ss
-3.6238000999999997e+01 3.4779347999999999e+01
-3.6009999999999998e+01 3.5910001999999999e+01
-2.0010013230129999e+02 7.5042313030130003e+02
ITEM: ATOMS vz 
-0.00226658 
0.00535914 
0.0218051 
ITEM: TIMESTEP
17200
ITEM: NUMBER OF ATOMS
3
ITEM: BOX BOUNDS ss ss ss
-3.6238000999999997e+01 3.4779347999999999e+01
-3.6009999999999998e+01 3.5910001999999999e+01
-2.0010013230129999e+02 7.5042313030130003e+02
ITEM: ATOMS vz 
-0.00516858 
-0.016433 
-0.00214707 
ITEM: TIMESTEP
17400
ITEM: NUMBER OF ATOMS
3
ITEM: BOX BOUNDS ss ss ss
-3.6238000999999997e+01 3.4779347999999999e+01
-3.6009999999999998e+01 3.5910001999999999e+01
-2.0010013230129999e+02 7.5042313030130003e+02
ITEM: ATOMS vz 
0.000225825 
0.0298043 
0.00339558 
ITEM: TIMESTEP
17600
ITEM: NUMBER OF ATOMS
3
ITEM: BOX BOUNDS ss ss ss
-3.6238000999999997e+01 3.4779347999999999e+01
-3.6009999999999998e+01 3.5910001999999999e+01
-2.0010013230129999e+02 7.5042313030130003e+02
ITEM: ATOMS vz 
0.00358583 
0.0099428 
0.0378564 
ITEM: TIMESTEP
17800
ITEM: NUMBER OF ATOMS
3
ITEM: BOX BOUNDS ss ss ss
-3.6238000999999997e+01 3.4779347999999999e+01
-3.6009999999999998e+01 3.5910001999999999e+01
-2.0010013230129999e+02 7.5042313030130003e+02
ITEM: ATOMS vz 
0.00449086 
-0.0221807 
0.0355528 
ITEM: TIMESTEP
18000
ITEM: NUMBER OF ATOMS
3
ITEM: BOX BOUNDS ss ss ss
-3.6238000999999997e+01 3.4779347999999999e+01
-3.6009999999999998e+01 3.5910001999999999e+01
-2.0010013230129999e+02 7.5042313030130003e+02
ITEM: ATOMS vz 
-0.00541761 
0.00799574 
0.0148896 
ITEM: TIMESTEP
18200
ITEM: NUMBER OF ATOMS
3
ITEM: BOX BOUNDS ss ss ss
-3.6238000999999997e+01 3.4779347999999999e+01
-3.6009999999999998e+01 3.5910001999999999e+01
-2.0010013230129999e+02 7.5042313030130003e+02
ITEM: ATOMS vz 
-0.000311593 
0.0120802 
-0.0345121 
ITEM: TIMESTEP
18400
ITEM: NUMBER OF ATOMS
3
ITEM: BOX BOUNDS ss ss ss
-3.6238000999999997e+01 3.4779347999999999e+01
-3.6009999999999998e+01 3.5910001999999999e+01
-2.0010013230129999e+02 7.5042313030130003e+02
ITEM: ATOMS vz 
-0.00126924 
-0.0231574 
-0.0248417 
ITEM: TIMESTEP
18600
ITEM: NUMBER OF ATOMS
3
ITEM: BOX BOUNDS ss ss ss
-3.6238000999999997e+01 3.4779347999999999e+01
-3.6009999999999998e+01 3.5910001999999999e+01
-2.0010013230129999e+02 7.5042313030130003e+02
ITEM: ATOMS vz 
-0.000203572 
0.00718104 
-0.0325607 
ITEM: TIMESTEP
18800
ITEM: NUMBER OF ATOMS
3
ITEM: BOX BOUNDS ss ss ss
-3.6238000999999997e+01 3.4779347999999999e+01
-3.6009999999999998e+01 3.5910001999999999e+01
-2.0010013230129999e+02 7.5042313030130003e+02
ITEM: ATOMS vz 
-0.00463876 
-0.0502944 
0.00397399 
ITEM: TIMESTEP
19000
ITEM: NUMBER OF ATOMS
3
ITEM: BOX BOUNDS ss ss ss
-3.6238000999999997e+01 3.4779347999999999e+01
-3.6009999999999998e+01 3.5910001999999999e+01
-2.0010013230129999e+02 7.5042313030130003e+02
ITEM: ATOMS vz 
0.00371483 
0.0510273 
0.00491248 
ITEM: TIMESTEP
19200
ITEM: NUMBER OF ATOMS
3
ITEM: BOX BOUNDS ss ss ss
-3.6238000999999997e+01 3.4779347999999999e+01
-3.6009999999999998e+01 3.5910001999999999e+01
-2.0010013230129999e+02 7.5042313030130003e+02
ITEM: ATOMS vz 
0.0121971 
-0.0140893 
-0.0222818 
ITEM: TIMESTEP
19400
ITEM: NUMBER OF ATOMS
3
ITEM: BOX BOUNDS ss ss ss
-3.6238000999999997e+01 3.4779347999999999e+01
-3.6009999999999998e+01 3.5910001999999999e+01
-2.0010013230129999e+02 7.5042313030130003e+02
ITEM: ATOMS vz 
-0.000696637 
-0.0136669 
-0.0354016 
ITEM: TIMESTEP
19600
ITEM: NUMBER OF ATOMS
3
ITEM: BOX BOUNDS ss ss ss
-3.6238000999999997e+01 3.4779347999999999e+01
-3.6009999999999998e+01 3.5910001999999999e+01
-2.0010013230129999e+02 7.5042313030130003e+02
ITEM: ATOMS vz 
-0.00140146 
0.00709144 
-0.0185512 
ITEM: TIMESTEP
19800
ITEM: NUMBER OF ATOMS
3
ITEM: BOX BOUNDS ss ss ss
-3.6238000999999997e+01 3.4779347999999999e+01
-3.6009999999999998e+01 3.5910001999999999e+01
-2.0010013230129999e+02 7.5042313030130003e+02
ITEM: ATOMS vz 
-0.00436273 
-0.00384643 
0.0285746 
ITEM: TIMESTEP
20000
ITEM: NUMBER OF ATOMS
3
ITEM: BOX BOUNDS ss ss ss
-3.6238000999999997e+01 3.4779347999999999e+01
-3.6009999999999998e+01 3.5910001999999999e+01
-2.0010013230129999e+02 7.5042313030130003e+02
ITEM: ATOMS vz 
-0.00568213 
0.00203864 
-0.0139243 
ITEM: TIMESTEP
20200
ITEM: NUMBER OF ATOMS
3
ITEM: BOX BOUNDS ss ss ss
-3.6238000999999997e+01 3.4779347999999999e+01
-3.6009999999999998e+01 3.5910001999999999e+01
-2.0010013230129999e+02 7.5042313030130003e+02
ITEM: ATOMS vz 
0.00318955 
-0.00219562 
-0.00586347 
ITEM: TIMESTEP
20400
ITEM: NUMBER OF ATOMS
3
ITEM: BOX BOUNDS ss ss ss
-3.6238000999999997e+01 3.4779347999999999e+01
-3.6009999999999998e+01 3.5910001999999999e+01
-2.0010013230129999e+02 7.5042313030130003e+02
ITEM: ATOMS vz 
0.00928917 
0.00361375 
0.00526785 
ITEM: TIMESTEP
20600
ITEM: NUMBER OF ATOMS
3
ITEM: BOX BOUNDS ss ss ss
-3.6238000999999997e+01 3.4779347999999999e+01
-3.6009999999999998e+01 3.5910001999999999e+01
-2.0010013230129999e+02 7.5042313030130003e+02
ITEM: ATOMS vz 
-0.0105069 
0.00893562 
-0.00536121 
ITEM: TIMESTEP
20800
ITEM: NUMBER OF ATOMS
3
ITEM: BOX BOUNDS ss ss ss
-3.6238000999999997e+01 3.4779347999999999e+01
-3.6009999999999998e+01 3.5910001999999999e+01
-2.0010013230129999e+02 7.5042313030130003e+02
ITEM: ATOMS vz 
0.000486261 
0.00649593 
-0.0124734 
ITEM: TIMESTEP
21000
ITEM: NUMBER OF ATOMS
3
ITEM: BOX BOUNDS ss ss ss
-3.6238000999999997e+01 3.4779347999999999e+01
-3.6009999999999998e+01 3.5910001999999999e+01
-2.0010013230129999e+02 7.5042313030130003e+02
ITEM: ATOMS vz 
0.00738623 
0.0354249 
-0.0160539 
ITEM: TIMESTEP
21200
ITEM: NUMBER OF ATOMS
3
ITEM: BOX BOUNDS ss ss ss
-3.6238000999999997e+01 3.4779347999999999e+01
-3.6009999999999998e+01 3.5910001999999999e+01
-2.0010013230129999e+02 7.5042313030130003e+02
ITEM: ATOMS vz 
0.00287601 
-0.0317242 
-0.00478408 
ITEM: TIMESTEP
21400
ITEM: NUMBER OF ATOMS
3
ITEM: BOX BOUNDS ss ss ss
-3.6238000999999997e+01 3.4779347999999999e+01
-3.6009999999999998e+01 3.5910001999999999e+01
-2.0010013230129999e+02 7.5042313030130003e+02
ITEM: ATOMS vz 
-0.00914357 
0.0144393 
0.00623458 
ITEM: TIMESTEP
21600
ITEM: NUMBER OF ATOMS
3
ITEM: BOX BOUNDS ss ss ss
-3.6238000999999997e+01 3.4779347999999999e+01
-3.6009999999999998e+01 3.5910001999999999e+01
-2.0010013230129999e+02 7.5042313030130003e+02
ITEM: ATOMS vz 
-0.00162635 
-0.0120299 
-0.00589008 
ITEM: TIMESTEP
21800
ITEM: NUMBER OF ATOMS
3
ITEM: BOX BOUNDS ss ss ss
-3.6238000999999997e+01 3.4779347999999999e+01
-3.6009999999999998e+01 3.5910001999999999e+01
-2.0010013230129999e+02 7.5042313030130003e+02
ITEM: ATOMS vz 
-0.000600883 
-0.0223528 
-0.00831386 
ITEM: TIMESTEP
22000
ITEM: NUMBER OF ATOMS
3
ITEM: BOX BOUNDS ss ss ss
-3.6238000999999997e+01 3.4779347999999999e+01
-3.6009999999999998e+01 3.5910001999999999e+01
-2.0010013230129999e+02 7.5042313030130003e+02
ITEM: ATOMS vz 
0.00551875 
-0.0117844 
-0.00574901 
ITEM: TIMESTEP
22200
ITEM: NUMBER OF ATOMS
3
ITEM: BOX BOUNDS ss ss ss
-3.6238000999999997e+01 3.4779347999999999e+01
-3.6009999999999998e+01 3.5910001999999999e+01
-2.0010013230129999e+02 7.5042313030130003e+02
ITEM: ATOMS vz 
0.00302378 
0.00478612 
0.00566393 
ITEM: TIMESTEP
22400
ITEM: NUMBER OF ATOMS
3
ITEM: BOX BOUNDS ss ss ss
-3.6238000999999997e+01 3.4779347999999999e+01
-3.6009999999999998e+01 3.5910001999999999e+01
-2.0010013230129999e+02 7.5042313030130003e+02
ITEM: ATOMS vz 
0.00201214 
-0.00379455 
0.0316364 
ITEM: TIMESTEP
22600
ITEM: NUMBER OF ATOMS
3
ITEM: BOX BOUNDS ss ss ss
-3.6238000999999997e+01 3.4779347999999999e+01
-3.6009999999999998e+01 3.5910001999999999e+01